
Host: Ganeshs-MacBook-Pro-2.local

Timers On : Mon Mar  2 12:05:26 2026
Timers Off: Mon Mar  2 12:05:28 2026

Wall Time:        1.81 seconds

                                                       Time (seconds)
Module                                       User      System        Wall        Calls

--------------------------------------------------------------------------------------

**************************************************************************************
